22
202.log	Energy: -590822.9545000
Au         0.84503        0.19165       -0.10204
Cl         1.34115        0.27692       -2.36504
N          1.01411        0.82517        2.87017
C          0.35346        0.20820        1.84962
N         -0.71270       -0.39726        2.44567
C         -1.71488       -1.19541        1.74362
C          0.36979        0.60367        4.08472
H          0.73745        1.00938        5.01087
C         -0.71343       -0.16304        3.81844
H         -1.47624       -0.55729        4.46668
H         -1.67586       -2.23129        2.08383
H         -2.70939       -0.78429        1.92156
C          2.24114        1.60290        2.71602
H          3.06389        1.11499        3.24080
H          2.47289        1.66013        1.65474
H          2.09540        2.60941        3.11018
H         -1.49240       -1.15586        0.67954
H          1.97518       -1.47304        0.08300
C          2.60421       -2.38358        0.19129
H          2.20992       -3.16359       -0.46113
H          3.62528       -2.14086       -0.10590
H          2.58821       -2.71905        1.23081
