22
242.log	Energy: -590828.3460601
Au         0.83567        0.14881       -0.15489
Cl         1.41535        0.11283       -2.39062
N          0.94308        0.86484        2.79535
C          0.32875        0.18465        1.78561
N         -0.70535       -0.46790        2.38928
C         -1.65371       -1.34064        1.70127
C          0.30200        0.63606        4.01000
H          0.63767        1.08471        4.92845
C         -0.73181       -0.19977        3.75534
H         -1.47483       -0.62331        4.40806
H         -1.58044       -2.35605        2.09333
H         -2.66940       -0.96509        1.83264
C          2.12195        1.71202        2.63129
H          2.38859        1.71824        1.57676
H          1.89837        2.72945        2.95500
H          2.95390        1.31242        3.21293
H         -1.40303       -1.34320        0.64282
H          2.27316       -1.75646        0.24848
C          2.92583       -2.61295        0.45056
H          2.59884       -3.45952       -0.15488
H          3.94960       -2.35041        0.18010
H          2.88134       -2.87805        1.50916
