22
272.log	Energy: -590829.3116610
Au         0.72025        0.31266       -0.10216
Cl         1.19068        0.44695       -2.35750
N          0.98755        0.78343        2.88548
C          0.32322        0.18116        1.85787
N         -0.66986       -0.53272        2.46137
C         -1.64943       -1.35637        1.75670
C          0.41727        0.44691        4.11022
H          0.80026        0.82219        5.04296
C         -0.62214       -0.37842        3.84425
H         -1.32377       -0.86416        4.49945
H         -2.65802       -0.99453        1.96125
H         -1.44784       -1.28226        0.69041
C          2.14799        1.65698        2.72821
H          3.01272        1.22471        3.23367
H          2.35959        1.74864        1.66523
H          1.93181        2.64308        3.14156
H         -1.55818       -2.39697        2.07117
H          2.37019       -1.83966        0.11383
C          3.03285       -2.70036        0.22251
H          2.68198       -3.50495       -0.42536
H          4.04228       -2.41321       -0.07551
H          3.04105       -3.04286        1.25934
