22
292.log	Energy: -590829.4043435
Au         0.84144        0.17561       -0.16350
Cl         1.43738        0.13859       -2.39201
N          0.95776        0.85161        2.79393
C          0.33789        0.18866        1.77582
N         -0.69955       -0.46560        2.37240
C         -1.65569       -1.32190        1.67448
C          0.31632        0.61123        4.00601
H          0.65588        1.04555        4.92990
C         -0.72298       -0.21477        3.74167
H         -1.46779       -0.64229        4.38973
H         -1.59892       -2.33974        2.06290
H         -2.66699       -0.93293        1.80091
C          2.14078        1.69497        2.64003
H          2.41382        1.70429        1.58720
H          1.91947        2.71204        2.96654
H          2.96753        1.28960        3.22506
H         -1.39829       -1.32375        0.61768
H          2.55125       -2.13966        0.33220
C          3.18856       -3.00034        0.53830
H          2.85725       -3.84424       -0.06856
H          4.21873       -2.75302        0.27794
H          3.13325       -3.26723        1.59557
