56
cdex_Au_opt_xtb_S_sugar.log	Energy: -554462.8259867
Ag        -1.89915       -1.83074        0.50649
Cl        -0.91390       -3.67649        1.42015
C         -2.91506        0.01672       -0.14903
N         -3.35250        0.28976       -1.39739
N         -3.24653        1.10397        0.57610
C         -3.93429        1.52644       -1.45072
C         -3.22766       -0.58317       -2.53636
C         -3.86328        2.04250       -0.20133
C         -3.03852        1.24686        1.99059
H         -4.34695        1.93160       -2.35125
H         -2.20289       -0.62776       -2.84094
H         -3.82300       -0.20623       -3.34159
H         -3.56435       -1.56398       -2.27263
H         -4.20043        2.98192        0.18521
H         -3.46227        2.17188        2.32176
H         -3.50931        0.43477        2.50417
H         -1.98908        1.24035        2.19923
H         -0.62434        2.46438        1.85437
C          0.37468        2.54747        2.22849
H          0.83292        3.42815        1.82934
H          0.35156        2.61015        3.29640
O          1.12830        1.39773        1.83469
C          1.81715        1.42357        0.59252
H          2.26080        2.41389        0.42434
C          2.94370        0.37669        0.72146
C          0.87611        1.09245       -0.58248
O          3.97962        0.82526        1.55971
H          2.50533       -0.55509        1.10404
C          3.59700        0.08877       -0.63404
O          1.64226        0.90662       -1.79551
H          0.36513        0.14056       -0.35702
C         -0.13959        2.13884       -0.81475
C          3.81946        0.55088        2.93527
O          4.45530       -1.00782       -0.45907
H          4.17001        0.98243       -0.93097
C          2.53210       -0.17637       -1.71962
O          0.26059        3.44867       -0.75452
H         -0.56125        1.94072       -1.82876
H         -0.96876        1.97779       -0.11709
H          3.06733        1.20135        3.38684
H          4.79159        0.74454        3.38733
H          3.54506       -0.49699        3.09449
C          5.41302       -1.18280       -1.47523
H          3.02031       -0.22382       -2.69963
O          1.87099       -1.37242       -1.43386
C         -0.78535        4.38235       -0.82810
H          4.95770       -1.48389       -2.42495
H          6.07201       -1.97631       -1.12799
H          5.99329       -0.26564       -1.63069
C          1.57401       -2.24953       -2.50917
H         -1.48013        4.25481        0.01110
H         -1.34221        4.27923       -1.76900
H         -0.32375        5.36565       -0.78295
H          2.41394       -2.88666       -2.69215
H          0.72192       -2.84600       -2.25800
H          1.36222       -1.67730       -3.38814
