46
cdex_Au_opt_xtb_E_sugar_ghost.log	Energy: -554466.4637313
Cu         2.92264       -0.38244        0.98644
Cl         2.36382       -0.71066        2.98204
C          3.40007       -0.10585       -0.88208
N          3.72972        0.08512       -2.17223
C          4.86947        0.83114       -2.27179
C          5.87918        1.49205       -2.35999
H          6.77208        2.07649       -2.43799
H          0.69388       -0.30913       -0.24344
C          0.36127       -0.70985       -1.21398
O         -0.10339        0.34276       -2.03254
C         -0.70054       -1.77751       -0.88338
H          1.19064       -1.17480       -1.70477
C         -1.19697        1.01802       -1.44023
O         -0.09631       -2.53369        0.14975
H         -0.91029       -2.41334       -1.75675
C         -2.01929       -1.12067       -0.43056
C         -2.37687        0.02571       -1.39917
H         -1.42249        1.85563       -2.11337
O         -0.93133        1.45593       -0.15280
C         -0.65328       -3.78788        0.45452
O         -3.05454       -2.08653       -0.42453
H         -1.86900       -0.70976        0.57283
O         -3.55099        0.70143       -1.01838
H         -2.49083       -0.39220       -2.40972
C         -0.49608        2.79526        0.04409
H         -1.70018       -3.67633        0.64545
H         -0.17333       -4.18993        1.32222
H         -0.51027       -4.45202       -0.37214
C         -3.85912       -2.07136        0.74203
C         -4.70762        0.32636       -1.73492
H         -0.98994        3.43382       -0.65822
H          0.56062        2.83514       -0.11932
C         -0.87723        3.15050        1.49674
H         -3.25621       -2.30373        1.62373
H         -4.61175       -2.84407        0.59202
H         -4.34699       -1.10123        0.87374
H         -4.90956       -0.74407       -1.64358
H         -4.61222        0.58440       -2.79624
H         -5.52585        0.89479       -1.29697
H         -0.47930        4.07850        1.85084
H         -0.52565        2.35210        2.11629
O         -2.26386        3.33191        1.64325
C         -3.00538        2.17066        1.95038
H         -3.10324        1.51861        1.07976
H         -3.98938        2.52400        2.25666
H         -2.54259        1.61914        2.77520
