17
 energy: -28.686107867376 gnorm: 0.000298099570 xtb: 6.2.3 (conda-forge)
Cu        0.13477700593781   -0.12947023223136    0.17914435955438
Cl        0.83552082461089   -0.18104773459847   -1.80801869747406
C        -0.05032634537445   -0.08097888463963    2.15875660069276
N        -0.12184829435569   -1.13774533451250    2.99964141958356
N        -0.11985366669917    1.01733514529267    2.94535970211854
C        -0.26211444625192   -0.70907695607284    4.27960033394109
C        -0.07476821202516   -2.52471909931326    2.62147105388870
C        -0.26115539639035    0.65408842245299    4.24509869913630
C        -0.07633820018973    2.38271781372933    2.49503037494937
H        -0.35360573764058   -1.38031393349476    5.10921996730987
H         0.17547576798389   -2.60822474340605    1.56452788865299
H         0.67974122505521   -3.04508510151220    3.21178588556777
H        -1.04160387264835   -2.99892472446168    2.79810178863922
H        -0.35245375851539    1.36629696126289    5.03987790408766
H         0.25369560982211    2.41673482780343    1.45745325234878
H        -1.06470585115074    2.83954578333246    2.56914944811246
H         0.61656931783950    2.95406574036463    3.11219665889823
