28
cdex_Au_opt_xtb_E_sugar_ghost4.log	Energy: -289572.3606292
Au         1.30028       -0.63437        0.00598
Cl         1.20003       -2.80296        0.59910
C          1.41075        1.33284       -0.51433
N          1.48380        2.63360       -0.85837
C          2.60162        3.20758       -0.31811
C          3.56294        3.70120        0.14652
H          4.43746        4.15025        0.56919
H         -0.88403        1.34119       -1.66838
C         -1.57363        0.84076       -0.97429
O         -2.25387        1.81968       -0.21057
C         -2.51196       -0.10543       -1.73705
H         -0.99488        0.19499       -0.29917
C         -3.03461        1.21192        0.79399
O         -1.64773       -1.13451       -2.17189
H         -2.98689        0.39929       -2.59106
C         -3.61930       -0.66270       -0.82062
C         -4.18452        0.42665        0.11124
H         -3.43276        2.04555        1.38680
O         -2.29871        0.33169        1.57342
H         -1.57992       -1.80547       -1.48865
H         -3.21474       -1.45516       -0.22628
H         -4.41190       -1.04978       -1.42630
H         -4.78304        1.10432       -0.46097
H         -4.79240       -0.03267        0.86251
C         -1.93818        0.70082        2.89392
H         -2.82033        0.93586        3.45200
H         -1.42479       -0.11189        3.36386
H         -1.29730        1.55708        2.86251
