49
cdex_Au_opt_xtb_N_sugar.log	Energy: -457940.1482200
Au         1.41224       -1.38282       -0.19478
Cl         0.41272       -3.31120       -0.78383
C          2.31111        0.35876        0.36355
N          2.79955        1.33798       -0.42272
N          2.55595        0.75648        1.62510
C          3.34885        2.33204        0.33950
C          2.79341        1.35043       -1.86347
C          3.19792        1.96202        1.63303
C          2.15666        0.05005        2.81170
H          3.79214        3.20669       -0.08878
H          3.42641        0.56930       -2.22960
H          3.15382        2.29514       -2.21352
H          1.79545        1.19610       -2.21723
H          3.48923        2.45361        2.53777
H          2.43857        0.61546        3.67526
H          1.09541       -0.08631        2.80550
H          2.63881       -0.90481        2.83756
H          0.06678        2.50885       -2.09086
C         -0.69357        2.08684       -2.71431
H         -1.44781        2.82171       -2.90402
O         -1.26221        0.99501       -2.07524
H         -0.26102        1.77223       -3.64103
C         -2.21845        1.20512       -1.04985
H         -2.73964        2.15934       -1.19281
C         -3.22861        0.05769       -1.19740
C         -1.56354        1.18858        0.34291
H         -2.70095       -0.87110       -1.25944
C         -4.18088        0.01956        0.00660
H         -3.79711        0.20103       -2.09247
O         -2.53673        1.14768        1.37080
H         -0.92958        0.28804        0.40428
C         -0.68793        2.41871        0.58085
O         -5.00611       -1.10736       -0.13235
H         -4.78774        0.94087        0.00881
C         -3.35267       -0.00263        1.31162
O         -1.36485        3.58797        0.19339
H         -0.42933        2.46607        1.65102
H          0.23673        2.31671       -0.00330
H         -5.92523       -0.83075       -0.14975
H         -4.01851        0.07230        2.17944
O         -2.60129       -1.17377        1.34950
C         -0.54857        4.72892        0.27004
H         -1.16206        5.57120       -0.04264
H          0.31849        4.63484       -0.39628
H         -0.19305        4.89697        1.29449
C         -3.47867       -2.30117        1.41321
H         -3.61397       -2.70377        0.43112
H         -3.05320       -3.04872        2.04964
H         -4.42535       -1.99460        1.80654
