22
NHC_Ag_CH4_282_NEDA.log	Energy:  -25424.6617904
Ag         0.95169        0.06717       -0.07375
Cl         1.39893        0.26341       -2.33603
C          0.57744       -0.14513        1.95974
N          1.26525        0.40624        2.99886
N         -0.40984       -0.86946        2.55763
C          0.71767        0.02970        4.22278
C          2.43164        1.27276        2.85117
C         -1.41161       -1.65259        1.83906
C         -0.33665       -0.77319        3.94507
H          1.12304        0.36321        5.16210
H          3.30198        0.81557        3.32416
H          2.62657        1.40105        1.78851
H          2.23560        2.24667        3.30195
H         -1.32994       -2.70629        2.10969
H         -2.41273       -1.28787        2.07340
H         -1.22870       -1.54071        0.77242
H         -1.03092       -1.27698        4.59475
H          2.67300       -2.24677        0.06581
C          3.32462       -3.11802        0.14100
H          2.95531       -3.89753       -0.52670
H          4.33389       -2.83477       -0.16063
H          3.34023       -3.49168        1.16664
