22
65.log	Energy: -1535125.4294131
Cu         0.79300        0.23925       -0.10849
Cl         1.32554        0.24337       -2.17524
N          0.96266        0.85292        2.76608
C          0.33848        0.20949        1.73603
N         -0.68632       -0.46251        2.33836
C         -1.64176       -1.30944        1.62974
C          0.34050        0.58475        3.98199
H          0.68793        1.00150        4.91128
C         -0.69719       -0.24308        3.71283
H         -1.43084       -0.68884        4.36169
H         -1.57049       -2.33835        1.98588
H         -2.65677       -0.93770        1.77810
C          2.13727        1.70625        2.60992
H          2.39262        1.74148        1.55262
H          1.91880        2.71580        2.96141
H          2.97908        1.29541        3.16948
H         -1.39988       -1.27969        0.56911
H          2.34523       -1.49692       -0.76833
C          3.04640       -2.32343       -0.92371
H          2.61514       -2.98663       -1.67664
H          3.97109       -1.90217       -1.32400
H          3.27757       -2.90347       -0.02787
