22
90.log	Energy: -1535128.6394943
Cu         0.70367        0.32729       -0.03782
Cl         1.12797        0.47450       -2.11080
N          0.99473        0.77450        2.85846
C          0.33132        0.18502        1.82077
N         -0.65972       -0.53240        2.42704
C         -1.63681       -1.34836        1.71202
C          0.43094        0.42726        4.08298
H          0.81631        0.79228        5.01904
C         -0.61033       -0.39520        3.81146
H         -1.30998       -0.88700        4.46459
H         -2.64814       -0.99981        1.92698
H         -1.44298       -1.25220        0.64546
C          2.15602        1.64529        2.70081
H          3.02822        1.20287        3.18475
H          2.35440        1.75622        1.63653
H          1.95261        2.62611        3.13330
H         -1.53858       -2.39564        2.00219
H          2.17190       -1.59010        0.12653
C          2.83665       -2.45111        0.23075
H          2.48620       -3.24879       -0.42561
H          3.84380       -2.15689       -0.06757
H          2.84732       -2.80318        1.26419
