22
75.log	Energy: -1535127.6989517
Cu         0.80728        0.20880       -0.10148
Cl         1.34561        0.19657       -2.15865
N          0.96220        0.85097        2.76802
C          0.34180        0.19928        1.74084
N         -0.68881       -0.46298        2.34410
C         -1.64323       -1.31320        1.63823
C          0.33232        0.59705        3.98309
H          0.67605        1.02176        4.91015
C         -0.70673       -0.22981        3.71630
H         -1.44561       -0.66654        4.36538
H         -1.58112       -2.33788        2.00804
H         -2.65732       -0.93377        1.77298
C          2.14136        1.69751        2.60995
H          2.39993        1.72466        1.55319
H          1.92674        2.71036        2.95426
H          2.97961        1.28631        3.17463
H         -1.39201       -1.29834        0.57944
H          2.34185       -1.64834       -0.33646
C          3.03352       -2.49374       -0.36983
H          2.64567       -3.22666       -1.07913
H          3.99955       -2.13224       -0.72597
H          3.15712       -2.96202        0.60876
