22
120.log	Energy: -1535127.9676575
Cu         0.72610        0.25212        0.02022
Cl         1.03501        0.52904       -2.05810
N          0.92064        0.85295        2.89912
C          0.28503        0.21690        1.87240
N         -0.73779       -0.45222        2.47967
C         -1.68861       -1.30775        1.77632
C          0.31400        0.57388        4.12088
H          0.67183        0.98433        5.04901
C         -0.72986       -0.24764        3.85688
H         -1.45981       -0.69339        4.50988
H         -2.70985       -1.00665        2.01362
H         -1.52038       -1.19486        0.70699
C          2.11052        1.68280        2.73723
H          2.97432        1.20090        3.19858
H          2.29561        1.80672        1.67192
H          1.94883        2.66171        3.19056
H         -1.53765       -2.35195        2.05577
H          1.84884       -1.55097        1.18101
C          2.36630       -2.36534        1.69732
H          2.07868       -3.31978        1.25443
H          3.44455       -2.23204        1.59994
H          2.08854       -2.35152        2.75356
