22
115.log	Energy: -1535128.3432031
Cu         0.71154        0.27774        0.00378
Cl         1.05035        0.51696       -2.07409
N          0.94305        0.82842        2.88926
C          0.29660        0.20725        1.86007
N         -0.71425       -0.47818        2.46948
C         -1.67299       -1.32316        1.76401
C          0.35413        0.52534        4.11393
H          0.72305        0.92063        5.04429
C         -0.68899       -0.29705        3.84971
H         -1.40707       -0.75883        4.50474
H         -2.69170       -1.01492        2.00333
H         -1.50473       -1.20768        0.69499
C          2.12394        1.67084        2.72580
H          2.99318        1.19783        3.18599
H          2.30630        1.79629        1.66022
H          1.95299        2.64823        3.17916
H         -1.53001       -2.36949        2.03942
H          1.90124       -1.56425        1.02886
C          2.44564       -2.39320        1.49032
H          2.15354       -3.32981        1.01354
H          3.51780       -2.24071        1.35938
H          2.20811       -2.43355        2.55555
