22
95.log	Energy: -1535128.7304518
Cu         0.82709        0.16234       -0.09503
Cl         1.36487        0.13459       -2.14564
N          0.96138        0.85177        2.76518
C          0.34592        0.18632        1.74410
N         -0.69323       -0.45997        2.34962
C         -1.64365       -1.31982        1.65035
C          0.32194        0.61932        3.97971
H          0.66114        1.05669        4.90254
C         -0.71946       -0.20617        3.71816
H         -1.46540       -0.62887        4.36844
H         -1.57739       -2.34137        2.02814
H         -2.65930       -0.94351        1.78175
C          2.14902        1.68529        2.60289
H          2.40665        1.70590        1.54573
H          1.94509        2.70151        2.94365
H          2.98375        1.26761        3.16810
H         -1.39206       -1.31222        0.59157
H          2.18713       -1.74780        0.50561
C          2.80139       -2.60281        0.79878
H          2.48628       -3.47830        0.22947
H          3.84572       -2.38345        0.57265
H          2.69021       -2.79930        1.86703
