22
100.log	Energy: -590828.4006189
Au         0.81149        0.23602       -0.12277
Cl         1.34400        0.30139       -2.36778
N          0.98023        0.81940        2.85424
C          0.33668        0.19570        1.82667
N         -0.69961       -0.46364        2.41862
C         -1.67319       -1.29048        1.70960
C          0.35675        0.54654        4.06902
H          0.71660        0.94711        5.00045
C         -0.69690       -0.25805        3.79580
H         -1.43664       -0.69691        4.44209
H         -1.59916       -2.32629        2.04402
H         -2.68154       -0.91457        1.88779
C          2.17579        1.64604        2.70753
H          3.01656        1.18510        3.22802
H          2.40555        1.72162        1.64703
H          1.99127        2.64249        3.11103
H         -1.44983       -1.23765        0.64635
H          2.10457       -1.69297        0.55994
C          2.68829       -2.56120        0.88596
H          2.36440       -3.44082        0.32764
H          3.74502       -2.37714        0.68632
H          2.54223       -2.73139        1.95500
