22
115.log	Energy: -590827.9045601
Au         0.72817        0.28853       -0.07743
Cl         1.13722        0.50189       -2.33787
N          0.94667        0.82325        2.90637
C          0.29481        0.20410        1.88204
N         -0.71465       -0.48716        2.48260
C         -1.67452       -1.33466        1.77970
C          0.35876        0.51076        4.12947
H          0.73005        0.90212        5.06031
C         -0.68331       -0.31122        3.86366
H         -1.39946       -0.77772        4.51711
H         -2.69120       -1.04107        2.04344
H         -1.52399       -1.20095        0.71073
C          2.12913        1.66646        2.75002
H          2.99947        1.17858        3.19169
H          2.30043        1.81420        1.68604
H          1.96218        2.63187        3.22910
H         -1.51155       -2.38189        2.03919
H          1.89047       -1.53838        1.00451
C          2.41621       -2.36170        1.50241
H          2.12593       -3.30793        1.04319
H          3.49288       -2.22373        1.39147
H          2.15803       -2.37664        2.56400
