22
125.log	Energy: -590826.6456851
Au         0.75467        0.24099       -0.04802
Cl         1.10618        0.52750       -2.31132
N          0.90260        0.87140        2.92254
C          0.27068        0.22476        1.90318
N         -0.76010       -0.43730        2.49954
C         -1.70171       -1.30852        1.80130
C          0.28213        0.60317        4.14012
H          0.63257        1.02304        5.06660
C         -0.76092       -0.21776        3.87477
H         -1.49900       -0.65453        4.52433
H         -2.72350       -1.03944        2.07070
H         -1.56010       -1.17215        0.73143
C          2.10465        1.68681        2.76963
H          2.96599        1.17102        3.19739
H          2.27269        1.84678        1.70688
H          1.96440        2.64804        3.26499
H         -1.51205       -2.35155        2.06023
H          1.76957       -1.48943        1.30651
C          2.23832       -2.27619        1.91186
H          1.95523       -3.25576        1.52382
H          3.32361       -2.17177        1.87169
H          1.89953       -2.17957        2.94638
