22
75.log	Energy: -590827.6551590
Au         0.83957        0.18273       -0.15243
Cl         1.42905        0.16249       -2.39156
N          0.94813        0.86203        2.80536
C          0.33080        0.19801        1.78659
N         -0.70814       -0.45549        2.38105
C         -1.66272       -1.31205        1.68123
C          0.30318        0.62359        4.01600
H          0.64004        1.05941        4.94018
C         -0.73552       -0.20261        3.74991
H         -1.48246       -0.62878        4.39642
H         -1.60494       -2.33048        2.06798
H         -2.67455       -0.92456        1.80775
C          2.13163        1.70514        2.65324
H          2.40171        1.72053        1.59970
H          1.91189        2.72037        2.98635
H          2.95974        1.29584        3.23362
H         -1.40477       -1.31172        0.62453
H          2.37291       -1.67638       -0.37982
C          3.07069       -2.51805       -0.43894
H          2.67882       -3.24537       -1.15150
H          4.03205       -2.14720       -0.79758
H          3.19868       -2.98972        0.53777
