22
CH4_Au_HMCl_50.log	Energy: -590810.7325118
Au         0.67766        0.41863       -0.17948
Cl         1.34113        0.42408       -2.44459
N          0.96815        0.82617        2.80041
C          0.29394        0.23636        1.77432
N         -0.68079       -0.49338        2.38165
C         -1.63887       -1.32656        1.65552
C          0.42451        0.46505        4.02814
H          0.81603        0.82742        4.96202
C         -0.61213       -0.36541        3.76536
H         -1.30174       -0.86113        4.42504
H         -2.24304       -1.87059        2.37975
H         -2.28147       -0.70336        1.03430
C          2.14074        1.68468        2.61515
H          2.91046        1.13975        2.07130
H          1.86325        2.57487        2.05188
H          2.51342        1.97359        3.59640
H         -1.10352       -2.03278        1.02243
H          2.18179       -1.06262       -1.36379
C          2.88535       -1.82740       -1.76095
H          2.37698       -2.35786       -2.56423
H          3.74463       -1.30420       -2.17686
H          3.24259       -2.56414       -1.03081
