22
CH4_Au_HMCl_fixed_60_lanl2dz_test.log	Energy: -311135.6081076
Au         0.80650        0.24059       -0.16852
Cl         1.40706        0.24707       -2.51182
N          0.95894        0.86856        2.80960
C          0.32445        0.21382        1.77759
N         -0.71247       -0.46555        2.37721
C         -1.67443       -1.31927        1.66657
C          0.32800        0.60034        4.03277
H          0.66951        1.01640        4.96591
C         -0.72300       -0.23858        3.76087
H         -1.45539       -0.67980        4.41617
H         -1.60549       -2.34968        2.03041
H         -2.69236       -0.94383        1.81353
C          2.14132        1.72695        2.65367
H          2.40738        1.76203        1.59581
H          1.92013        2.74090        3.00255
H          2.98288        1.31709        3.22168
H         -1.43544       -1.29950        0.60188
H          2.34765       -1.41656       -1.02749
C          3.05800       -2.22633       -1.25113
H          2.60111       -2.85190       -2.02744
H          3.95722       -1.75952       -1.67105
H          3.34444       -2.85794       -0.40165
