22
NHC_Cu_CH4_282_NEDA.log	Energy:  -25424.6665884
Cu         0.80404        0.20152       -0.11170
Cl         1.35253        0.16320       -2.15749
C          0.34752        0.18914        1.73191
N          0.97241        0.83983        2.75709
N         -0.67981       -0.47459        2.33928
C          0.34894        0.58327        3.97486
C          2.15040        1.68712        2.59481
C         -1.63674       -1.32506        1.63721
C         -0.69083       -0.24389        3.71193
H          0.69733        1.00629        4.90096
H          2.41064        1.70710        1.53831
H          1.93403        2.70210        2.93172
H          2.98823        1.28080        3.16360
H         -1.57575       -2.34868        2.01012
H         -2.65003       -0.94354        1.77214
H         -1.38685       -1.31401        0.57809
H         -1.42578       -0.68269        4.36407
H          2.45526       -2.03325        0.37287
C          3.09231       -2.89237        0.58549
H          2.76290       -3.73824       -0.01954
H          4.12240       -2.64468        0.32548
H          3.03563       -3.15590        1.64340
