22
CH4_Cu_HM_232.log	Energy: -1535128.3267938
Cu         0.83400        0.16231       -0.09033
Cl         1.37128        0.14442       -2.14362
N          0.95679        0.85495        2.77022
C          0.34497        0.18897        1.74725
N         -0.69744       -0.45549        2.34918
C         -1.64676       -1.31386        1.64657
C          0.31128        0.62553        3.98212
H          0.64664        1.06415        4.90576
C         -0.72989       -0.19915        3.71712
H         -1.47945       -0.61971        4.36462
H         -1.58522       -2.33504        2.02614
H         -2.66203       -0.93461        1.77246
C          2.14537        1.68790        2.61172
H          2.40714        1.70723        1.55555
H          1.94037        2.70458        2.95044
H          2.97777        1.27074        3.18076
H         -1.39005       -1.30839        0.58899
H          2.19520       -1.67985        0.28190
C          2.83799       -2.54071        0.48780
H          2.50813       -3.38033       -0.12544
H          3.86450       -2.28357        0.22322
H          2.78658       -2.81262        1.54397
