22
CH4_Cu_HM_302.log	Energy: -1535128.8438867
Cu         0.80821        0.20353       -0.11326
Cl         1.35911        0.16580       -2.15799
N          0.97469        0.83851        2.75632
C          0.34984        0.18988        1.72972
N         -0.67917       -0.47292        2.33541
C         -1.63738       -1.32047        1.63150
C          0.34922        0.58208        3.97307
H          0.69716        1.00376        4.89994
C         -0.69156       -0.24319        3.70819
H         -1.42803       -0.68131        4.35906
H         -1.58106       -2.34397        2.00547
H         -2.64964       -0.93518        1.76348
C          2.15371        1.68483        2.59628
H          2.41655        1.70393        1.54042
H          1.93729        2.70021        2.93198
H          2.98981        1.27827        3.16743
H         -1.38473       -1.31122        0.57303
H          2.57193       -2.19299        0.40614
C          3.20689       -3.05386        0.61623
H          2.87565       -3.89826        0.01016
H          4.23793       -2.80867        0.35763
H          3.14898       -3.31889        1.67364
