22
CH4_Cu_HM_182.log	Energy: -1535123.0663128
Cu         0.84588        0.14884        0.00035
Cl         1.22804        0.36218       -2.09557
N          0.96169        0.83257        2.87292
C          0.34157        0.18378        1.84411
N         -0.72021       -0.43618        2.43750
C         -1.68433       -1.26932        1.72507
C          0.30216        0.61681        4.08024
H          0.63987        1.04766        5.00668
C         -0.75668       -0.18178        3.80613
H         -1.52246       -0.58301        4.44689
H         -1.61180       -2.30553        2.05983
H         -2.69654       -0.89856        1.89285
C          2.17129        1.63605        2.72307
H          3.00690        1.16642        3.24491
H          2.40317        1.70460        1.66188
H          2.00657        2.63878        3.11994
H         -1.45596       -1.21817        0.66213
H          1.93210       -1.31134        0.04978
C          2.60072       -2.19097        0.12021
H          2.22701       -2.95617       -0.56054
H          3.59858       -1.88195       -0.19220
H          2.62802       -2.57325        1.14203
