22
CH4_Cu_HM_212.log	Energy: -1535127.1722893
Cu         0.86060        0.13923       -0.06554
Cl         1.37930        0.16506       -2.12825
N          0.94390        0.86053        2.79189
C          0.34322        0.18816        1.76661
N         -0.71246       -0.44306        2.35919
C         -1.65624       -1.30261        1.65067
C          0.27870        0.64782        3.99633
H          0.60255        1.09437        4.92028
C         -0.76389       -0.17259        3.72397
H         -1.52651       -0.58080        4.36408
H         -1.59362       -2.32481        2.02748
H         -2.67296       -0.92643        1.77372
C          2.14087        1.68302        2.64260
H          2.40511        1.70819        1.58714
H          1.94429        2.69890        2.98850
H          2.96825        1.25420        3.21040
H         -1.39566       -1.29313        0.59405
H          2.10978       -1.54912        0.22743
C          2.75958       -2.41418        0.41127
H          2.42606       -3.24002       -0.21823
H          3.78133       -2.14447        0.14136
H          2.71834       -2.70720        1.46216
