22
CH4_Cu_HM_172.log	Energy: -1535120.5470129
Cu         0.87065        0.12070        0.02022
Cl         1.22540        0.38719       -2.08211
N          0.94929        0.83672        2.88965
C          0.34035        0.17906        1.85980
N         -0.73226       -0.42923        2.44573
C         -1.69058       -1.26544        1.72923
C          0.27228        0.63791        4.09032
H          0.59888        1.07845        5.01620
C         -0.78639       -0.15897        3.81084
H         -1.56312       -0.54879        4.44543
H         -1.61777       -2.30133        2.06506
H         -2.70437       -0.89670        1.89165
C          2.16398        1.63363        2.74670
H          2.99457        1.15989        3.27292
H          2.40178        1.70173        1.68676
H          2.00212        2.63703        3.14299
H         -1.45731       -1.21433        0.66733
H          1.90403       -1.25497        0.02022
C          2.58050       -2.13620        0.06735
H          2.20216       -2.88586       -0.62767
H          3.57172       -1.81179       -0.24995
H          2.62137       -2.54042        1.07992
