22
105.log	Energy: -597887.0816081
Ag         0.84693        0.19882       -0.16273
Cl         1.37244        0.27378       -2.41700
N          0.95883        0.83090        2.88199
C          0.32822        0.19514        1.85537
N         -0.71714       -0.44574        2.44892
C         -1.68452       -1.27918        1.74028
C          0.32211        0.58366        4.09598
H          0.67257        0.99799        5.02517
C         -0.73299       -0.21987        3.82335
H         -1.48306       -0.64356        4.46816
H         -1.61518       -2.31240        2.08389
H         -2.69505       -0.90258        1.90439
C          2.16058        1.64726        2.73377
H          2.99598        1.18887        3.26525
H          2.39989        1.70945        1.67421
H          1.98189        2.65076        3.12228
H         -1.45383       -1.23792        0.67778
H          2.06900       -1.70302        0.70252
C          2.62564       -2.55667        1.10107
H          2.31303       -3.46329        0.58141
H          3.69223       -2.39674        0.93809
H          2.42801       -2.65818        2.17021
