22
80.log	Energy: -597886.7833340
Ag         0.86555        0.16117       -0.20738
Cl         1.46564        0.12397       -2.44980
N          0.93606        0.86514        2.82069
C          0.32634        0.19585        1.80237
N         -0.71532       -0.44773        2.40021
C         -1.66625       -1.30794        1.70097
C          0.28704        0.64037        4.03233
H          0.61995        1.08304        4.95488
C         -0.75240       -0.18598        3.76766
H         -1.50357       -0.60511        4.41417
H         -1.61023       -2.32552        2.09043
H         -2.67970       -0.92234        1.82067
C          2.12204        1.70328        2.66550
H          2.39659        1.71097        1.61273
H          1.90640        2.72251        2.98918
H          2.94888        1.29753        3.25030
H         -1.40606       -1.31293        0.64455
H          2.36979       -1.73524       -0.20854
C          3.05422       -2.58728       -0.16745
H          2.68947       -3.35841       -0.84715
H          4.03997       -2.25612       -0.49653
H          3.11762       -2.98734        0.84647
