22
115.log	Energy: -597886.6943732
Ag         0.77033        0.24330       -0.11600
Cl         1.17009        0.46956       -2.38579
N          0.92348        0.83561        2.93640
C          0.28811        0.20034        1.91275
N         -0.73195       -0.47135        2.51560
C         -1.68906       -1.32145        1.81309
C          0.31670        0.55507        4.15860
H          0.67514        0.96411        5.08708
C         -0.72547       -0.26768        3.89369
H         -1.45404       -0.71684        4.54586
H         -2.70746       -0.99741        2.03120
H         -1.50398       -1.23009        0.74479
C          2.10734        1.67563        2.77811
H          2.96752        1.21129        3.26303
H          2.30877        1.78130        1.71409
H          1.92722        2.66081        3.21018
H         -1.56054       -2.36269        2.11304
H          1.94096       -1.58681        0.95145
C          2.47865       -2.41162        1.43009
H          2.18934       -3.35357        0.96235
H          3.55248       -2.26281        1.30929
H          2.22809       -2.43598        2.49286
