22
90.log	Energy: -597887.1037617
Ag         0.75428        0.30278       -0.14891
Cl         1.22885        0.45396       -2.41302
N          0.97077        0.78226        2.91656
C          0.31842        0.17971        1.88317
N         -0.68246       -0.52385        2.48298
C         -1.65605       -1.34658        1.77010
C          0.38868        0.45679        4.13934
H          0.76306        0.83532        5.07446
C         -0.65198       -0.36532        3.86642
H         -1.36302       -0.84409        4.51688
H         -2.66734       -0.98967        1.97010
H         -1.45129       -1.26763        0.70445
C          2.13694        1.64822        2.76464
H          2.99930        1.21063        3.26978
H          2.35290        1.74297        1.70249
H          1.92801        2.63535        3.17937
H         -1.56508       -2.38929        2.07798
H          2.21944       -1.61565        0.03010
C          2.88666       -2.47625        0.13450
H          2.53831       -3.27412       -0.52249
H          3.89344       -2.17924       -0.16174
H          2.89366       -2.82562        1.16887
