5
CH4.log	Energy:  -25436.6428360
H          1.94008       -1.26381        0.11455
C          2.59095       -2.12954        0.24466
H          2.25062       -2.94060       -0.40064
H          3.61383       -1.85861       -0.02062
H          2.55928       -2.45515        1.28535
