22
CH4_Cu_complex.log	Energy: -1535130.0787625
Cu         0.37079        0.88613       -0.26979
Cl         0.47378        1.43102       -2.31410
N          1.12726        0.75689        2.57167
C          0.29381        0.37844        1.55828
N         -0.57900       -0.48592        2.15484
C         -1.65171       -1.18336        1.45269
C          0.78513        0.13518        3.76862
H          1.32703        0.30615        4.68245
C         -0.28912       -0.64719        3.50621
H         -0.86621       -1.29117        4.14669
H         -1.46033       -2.25784        1.44339
H         -2.60918       -0.98403        1.93610
C          2.25860        1.66428        2.40768
H          3.19669        1.13190        2.57441
H          2.24086        2.04861        1.38969
H          2.17768        2.49620        3.10874
H         -1.68227       -0.81607        0.42873
H          1.47761       -2.44748        0.44921
C          2.32652       -2.28819        1.11458
H          2.97699       -3.16355        1.09391
H          2.87917       -1.41320        0.77166
H          1.96979       -2.12215        2.13218
