22
CH4_Ag_complex.log	Energy: -597888.8809563
Ag         0.33837        0.88271       -0.42706
Cl         0.41464        1.43649       -2.67272
N          1.13680        0.76188        2.57203
C          0.28436        0.36761        1.58482
N         -0.57642       -0.48599        2.20697
C         -1.66348       -1.19532        1.53870
C          0.81782        0.15845        3.78547
H          1.37736        0.34363        4.68575
C         -0.26097       -0.62723        3.55562
H         -0.82623       -1.26122        4.21626
H         -1.46615       -2.26858        1.53490
H         -2.60833       -0.99569        2.04579
C          2.26616        1.66597        2.37563
H          3.20611        1.13200        2.52478
H          2.22604        2.04352        1.35603
H          2.20203        2.50200        3.07322
H         -1.72260       -0.83790        0.51280
H          1.46473       -2.46375        0.47444
C          2.32009       -2.29870        1.13001
H          2.96654       -3.17709        1.11610
H          2.87378       -1.43130        0.76994
H          1.97325       -2.11684        2.14837
